ITEM: TIMESTEP
0
ITEM: NUMBER OF ATOMS
320
ITEM: BOX BOUNDS pp pp pp
7.5300000000000000e-01 3.5164001499999998e+01
1.2529999999999999e+00 3.9716999100000002e+01
5.6000000000000001e-02 3.9937000400000002e+01
ITEM: ATOMS id type xs ys zs
149 2 0.0343495 0.0193168 0.245781
152 2 0.0723025 0.134437 0.238735
156 2 0.105431 0.0530106 0.249618
17 1 0.446195 0.0766691 0.0774053
18 1 0.449595 0.0236065 0.0304907
23 2 0.427509 0 0.0383641
24 2 0.425707 0.0426373 0.0140418
25 2 0.47851 0.0131552 0.0150197
26 2 0.485426 0.0396475 0.0682531
27 2 0.44695 0.0745632 0.109275
28 2 0.464503 0.100614 0.0674507
29 2 0.412019 0.0724314 0.0673002
30 2 0.448374 0.0249324 0.0809157
31 3 0.458516 0.0403754 0.065545
145 1 0.107989 0.0739913 0.271257
146 1 0.0504199 0.12357 0.262531
147 2 0.0387957 0.00324979 0.280986
148 2 0.0334486 0.0413894 0.276999
150 2 0 0.0180168 0.270505
151 2 0.0549824 0.147567 0.28234
153 2 0.015838 0.118604 0.25546
154 2 0.0519311 0.0754212 0.28407
155 2 0.120601 0.0607061 0.298463
157 2 0.125396 0.102017 0.265715
158 2 0.0751213 0.101368 0.302951
159 3 0.0705879 0.0928141 0.281713
160 3 0.0273168 0.0207727 0.268499
291 2 0.240592 0.157316 0.404679
292 2 0.235332 0.118942 0.404554
293 2 0.238703 0.137037 0.437953
294 2 0.202581 0.141301 0.415561
297 2 0.218942 0.0395955 0.418069
304 3 0.229956 0.138363 0.415687
289 1 0.309959 0.0860805 0.402347
290 1 0.252913 0.0356177 0.40854
295 2 0.255848 0.0142211 0.385923
296 2 0.276452 0.0219686 0.429678
298 2 0.253059 0.0860805 0.392643
299 2 0.320595 0.102615 0.376219
300 2 0.309145 0.104227 0.426343
301 2 0.327599 0.0575863 0.403676
302 2 0.274651 0.062682 0.36965
303 3 0.271774 0.0685576 0.391941
124 2 0.493912 0.297135 0.671197
275 2 0.381099 0.476524 0.706878
276 2 0.421115 0.489055 0.699707
277 2 0.411816 0.477589 0.734962
278 2 0.414809 0.451435 0.70585
288 3 0.407224 0.474288 0.711943
13 2 0.352329 5.77279e-18 0.922168
161 1 0.0564064 0.635399 0.24879
162 1 0.135451 0.621802 0.246508
167 2 0.14786 0.626196 0.218024
170 2 0.086978 0.591306 0.249041
171 2 0.0298451 0.625312 0.228756
173 2 0.0718956 0.662438 0.237482
174 2 0.090349 0.609817 0.216544
175 3 0.0916567 0.612989 0.239437
50 1 0.418296 0.813462 0.225671
55 2 0.429717 0.791155 0.206088
57 2 0.383104 0.819416 0.222863
61 2 0.490628 0.831583 0.246258
9 2 0.384848 0.948679 0
49 1 0.477086 0.860805 0.238785
51 2 0.417425 0.935368 0.21672
52 2 0.409927 0.897333 0.215215
53 2 0.399146 0.916415 0.246884
54 2 0.376449 0.921615 0.213987
58 2 0.429252 0.863223 0.210576
59 2 0.499869 0.875858 0.218199
62 2 0.457819 0.838004 0.196986
63 3 0.445497 0.844816 0.216469
64 3 0.401325 0.917377 0.223415
65 1 0.46055 0.922837 0.0834232
66 1 0.407573 0.912048 0.0321206
68 2 0.499259 0.890521 0.0280334
71 2 0.379733 0.895305 0.0423761
72 2 0.395746 0.942674 0.0396931
73 2 0.414606 0.906562 0.00213134
74 2 0.460318 0.890989 0.0438805
75 2 0.473715 0.901024 0.104661
76 2 0.48499 0.942128 0.0738948
77 2 0.428904 0.934848 0.0938041
78 2 0.429688 0.881682 0.0685038
79 3 0.440353 0.900166 0.0569946
163 2 0.0334195 0.551737 0.286327
164 2 0.0705298 0.566842 0.274015
165 2 0.0598355 0.572509 0.310248
166 2 0.0719247 0.536502 0.296984
168 2 0.138706 0.653 0.257416
169 2 0.153526 0.599132 0.26203
172 2 0.0459737 0.634619 0.277099
176 3 0.0587893 0.557508 0.291693
82 1 0.287931 0.603967 0.494471
87 2 0.310453 0.628224 0.490108
88 2 0.305803 0.580595 0.477496
89 2 0.254366 0.610857 0.485544
56 2 0.429368 0.799449 0.253203
182 2 0.412601 0.815412 0.386099
241 1 0.451919 0.726887 0.489406
251 2 0.440673 0.730553 0.459166
252 2 0.462236 0.698107 0.495023
254 2 0.473075 0.774594 0.481808
255 3 0.481881 0.75598 0.494296
60 2 0.466769 0.87981 0.2604
177 1 0.390776 0.925281 0.389208
178 1 0.319113 0.894135 0.379053
179 2 0.441225 0.842684 0.397483
180 2 0.399407 0.851368 0.39332
181 2 0.423295 0.845336 0.362177
183 2 0.295196 0.905678 0.398887
184 2 0.315481 0.916831 0.355733
185 2 0.312545 0.863535 0.371204
186 2 0.369882 0.878354 0.400717
187 2 0.408648 0.930662 0.416715
188 2 0.412194 0.916519 0.367569
189 2 0.367353 0.949641 0.383992
190 2 0.350324 0.90625 0.420075
191 3 0.358054 0.900062 0.398736
192 3 0.419052 0.839356 0.38472
83 2 0.216471 0.570741 0.589729
84 2 0.232077 0.586574 0.558487
85 2 0.212112 0.551815 0.555879
86 2 0.189387 0.585379 0.563501
96 3 0.213217 0.573419 0.566811
81 1 0.310889 0.56471 0.549284
90 2 0.268315 0.599262 0.542564
91 2 0.321467 0.575057 0.57822
92 2 0.291273 0.539465 0.550789
93 2 0.339514 0.56523 0.529826
94 2 0.307227 0.615745 0.540709
95 3 0.29293 0.597078 0.533036
273 1 0.424428 0.562656 0.710138
274 1 0.498184 0.538322 0.694993
282 2 0.443376 0.519525 0.68757
283 2 0.396181 0.568766 0.690329
284 2 0.413879 0.549631 0.735463
285 2 0.446311 0.58868 0.711191
286 2 0.451454 0.551035 0.66726
287 3 0.453343 0.542039 0.688649
259 2 0.154805 0.72447 0.737118
260 2 0.189765 0.701981 0.740277
262 2 0.150766 0.686122 0.744415
266 2 0.23228 0.701097 0.73431
272 3 0.166226 0.706115 0.748477
242 1 0.494871 0.772359 0.528572
247 2 0.481968 0.801919 0.526065
248 2 0.473105 0.761335 0.552393
253 2 0.428003 0.741239 0.508663
263 2 0.304815 0.669431 0.735538
267 2 0.25053 0.763259 0.725458
270 2 0.269478 0.708767 0.717033
271 3 0.258086 0.707389 0.737945
193 1 0.229142 0.906328 0.710088
194 1 0.173171 0.94205 0.67388
195 2 0.158612 0.848274 0.748502
196 2 0.15405 0.878666 0.725784
197 2 0.158118 0.843178 0.710188
198 2 0.12124 0.853915 0.72942
199 2 0.175787 0.973352 0.679196
200 2 0.197611 0.939528 0.649758
201 2 0.139461 0.932768 0.667812
202 2 0.171951 0.912282 0.716256
203 2 0.238645 0.90989 0.740804
204 2 0.228764 0.876742 0.701838
205 2 0.247305 0.928063 0.692711
206 2 0.193223 0.945455 0.72117
207 3 0.190927 0.926633 0.706953
208 3 0.148673 0.856255 0.728342
216 2 3.22636e-18 0.617227 0.950753
265 2 0.256866 0.649932 0.75956
307 2 0.462614 0.621932 0.831474
309 2 0.492604 0.632929 0.804819
310 2 0.471012 0.660072 0.826233
320 3 0.482171 0.637505 0.826133
261 2 0.167214 0.710353 0.771646
268 2 0.233966 0.750702 0.773
257 1 0.256662 0.744722 0.75141
258 1 0.278225 0.675411 0.755147
264 2 0.298306 0.68542 0.780447
269 2 0.29229 0.744722 0.758005
97 1 0.119642 0.931468 0.886362
98 1 0.187614 0.950707 0.854016
99 2 0.136061 0.839174 0.872797
100 2 0.157827 0.870502 0.861613
101 2 0.169132 0.854071 0.894511
102 2 0.177501 0.836185 0.860736
103 2 0.180611 0.972078 0.83205
104 2 0.191625 0.971506 0.87889
105 2 0.215832 0.932066 0.847221
106 2 0.153032 0.907602 0.852511
107 2 0.0869489 0.923149 0.873624
108 2 0.127575 0.913764 0.909681
109 2 0.121647 0.963888 0.88902
110 2 0.133678 0.938748 0.838294
111 3 0.147743 0.931 0.856523
112 3 0.159804 0.85051 0.872646
1 1 0.330127 0.974392 0.925303
2 1 0.386562 0.96667 0.974324
3 2 0.276888 0.897541 0.951932
4 2 0.314231 0.912906 0.963416
5 2 0.277411 0.924319 0.980667
6 2 0.294092 0.887505 0.985382
7 2 0.418994 0.96667 0.961611
8 2 0.382232 0.999532 0.978185
10 2 0.348115 0.933522 0.952007
11 2 0.327105 0.958767 0.897244
12 2 0.299526 0.978057 0.938442
14 2 0.378513 0.945949 0.928512
15 3 0.360902 0.953385 0.944385
16 3 0.290779 0.90612 0.970011
19 2 0.550696 0.0770591 0.0907951
20 2 0.525152 0.0544145 0.0701336
21 2 0.541949 0.0864965 0.0540107
22 2 0.567464 0.0549865 0.0630626
32 3 0.54561 0.0684536 0.0695569
38 2 0.641132 0.208117 0.24049
34 1 0.714859 0.161554 0.319601
40 2 0.708901 0.132228 0.333943
41 2 0.725349 0.160566 0.289938
44 2 0.618029 0.163608 0.327725
45 2 0.658598 0.161762 0.367243
33 1 0.641771 0.177985 0.344174
35 2 0.610677 0.217944 0.266041
36 2 0.648543 0.203047 0.276798
37 2 0.619802 0.179259 0.259898
39 2 0.740083 0.172941 0.338306
42 2 0.673506 0.197145 0.306562
43 2 0.629421 0.206973 0.355382
46 2 0.691262 0.204685 0.33966
47 3 0.680335 0.187136 0.327023
48 3 0.629973 0.201851 0.261403
226 1 0.794862 0.31991 0.395125
231 2 0.801023 0.290271 0.40503
233 2 0.763099 0.322821 0.380808
234 2 0.821656 0.331817 0.350919
238 2 0.842841 0.304857 0.370201
239 3 0.831188 0.326357 0.372132
225 1 0.8642 0.352329 0.378601
227 2 0.831246 0.375598 0.294952
228 2 0.812851 0.354955 0.322158
229 2 0.805208 0.393511 0.321206
230 2 0.788062 0.368708 0.294752
232 2 0.798698 0.336158 0.422983
235 2 0.892505 0.340526 0.361425
236 2 0.857923 0.381942 0.372583
237 2 0.867775 0.342788 0.408515
240 3 0.809799 0.37318 0.308769
113 1 0.51347 0.288166 0.648329
114 1 0.583069 0.324381 0.650209
115 2 0.529162 0.248128 0.729796
116 2 0.55398 0.271189 0.708859
117 2 0.527041 0.287932 0.733908
118 2 0.563134 0.267263 0.745016
119 2 0.602104 0.31848 0.624859
121 2 0.603702 0.330309 0.674983
122 2 0.562785 0.28086 0.673704
123 2 0.507541 0.256448 0.640656
125 2 0.514225 0.306156 0.622126
126 2 0.568248 0.275608 0.637171
127 3 0.557671 0.290557 0.652767
128 3 0.542966 0.268771 0.728868
120 2 0.562553 0.349782 0.639302
67 2 0.541455 0.887765 0.0355307
69 2 0.525239 0.920107 0.0175522
70 2 0.526808 0.884489 0
80 3 0.522856 0.896033 0.0207618
243 2 0.537067 0.693688 0.446002
244 2 0.532243 0.72174 0.471277
245 2 0.540438 0.685472 0.483689
246 2 0.571561 0.707155 0.46546
250 2 0.504432 0.74818 0.483764
256 3 0.544622 0.702033 0.466764
129 1 0.911104 0.826591 0.439909
131 2 0.970039 0.763363 0.484717
132 2 0.967423 0.801867 0.487099
139 2 0.927378 0.811564 0.415135
140 2 0.89544 0.806468 0.457862
144 3 0.965505 0.782212 0.498633
130 1 0.937927 0.881994 0.477847
135 2 0.950481 0.904976 0.459542
136 2 0.902066 0.890989 0.478473
138 2 0.959025 0.833611 0.467315
141 2 0.892883 0.852745 0.429703
142 2 0.958385 0.856593 0.437426
143 3 0.943477 0.848976 0.455204
279 2 0.511552 0.554181 0.670946
280 2 0.508994 0.558912 0.718487
281 2 0.510128 0.508007 0.696648
249 2 0.530325 0.771839 0.533788
133 2 0.94124 0.78047 0.509265
134 2 0.985412 0.782264 0.515133
137 2 0.954869 0.880824 0.505203
305 1 0.555898 0.582181 0.85053
306 1 0.592746 0.645617 0.859306
308 2 0.500538 0.637037 0.841779
311 2 0.609078 0.646475 0.886588
312 2 0.619947 0.631656 0.84193
314 2 0.536195 0.629706 0.861388
315 2 0.534393 0.565568 0.871041
316 2 0.543925 0.580543 0.822723
317 2 0.590828 0.575187 0.856247
318 2 0.559995 0.615147 0.889045
319 3 0.559589 0.6185 0.866152
209 1 0.969864 0.562058 0.907199
210 1 0.963093 0.620346 0.947644
211 2 0.90535 0.59674 0.843208
212 2 0.917294 0.610259 0.876583
213 2 0.94124 0.62045 0.846518
214 2 0.899858 0.634593 0.85196
215 2 0.953358 0.611897 0.976029
217 2 0.950888 0.649438 0.93962
218 2 0.929616 0.599262 0.910584
219 2 0.946558 0.536502 0.90419
220 2 0.983232 0.570455 0.881071
221 2 0.991979 0.556858 0.931672
222 2 0.930749 0.577293 0.94115
223 3 0.946296 0.589434 0.926381
224 3 0.916422 0.615069 0.854843
313 2 0.581355 0.674579 0.850029
ITEM: TIMESTEP
7
ITEM: NUMBER OF ATOMS
320
ITEM: BOX BOUNDS pp pp pp
7.5300000000000000e-01 3.5164001499999998e+01
1.2529999999999999e+00 3.9716999100000002e+01
5.6000000000000001e-02 3.9937000400000002e+01
ITEM: ATOMS id type xs ys zs
149 2 0.0343432 0.0193883 0.246167
152 2 0.0720587 0.134148 0.238852
156 2 0.105367 0.0528734 0.249304
17 1 0.445833 0.0763429 0.0778662
18 1 0.449383 0.0239502 0.0303483
23 2 0.427442 -0.000273694 0.0384783
24 2 0.426103 0.0426111 0.014172
25 2 0.478438 0.0132763 0.0151062
26 2 0.485428 0.0394336 0.0684819
27 2 0.447053 0.074559 0.108995
28 2 0.464663 0.100853 0.0672281
29 2 0.411829 0.0726893 0.0672668
30 2 0.448589 0.0247088 0.0812061
31 3 0.458457 0.0404124 0.0649063
145 1 0.108253 0.0741888 0.271825
146 1 0.0507323 0.123558 0.262223
147 2 0.039176 0.00324853 0.280892
148 2 0.0336913 0.041551 0.276905
150 2 -5.93131e-05 0.0181278 0.270293
151 2 0.05491 0.147719 0.282586
153 2 0.0160072 0.118537 0.255463
154 2 0.0519018 0.0754472 0.284383
155 2 0.120394 0.060774 0.298227
157 2 0.125684 0.102002 0.265545
158 2 0.074953 0.101222 0.303308
159 3 0.0703743 0.0931097 0.281168
160 3 0.0267255 0.0203569 0.268481
291 2 0.240978 0.157313 0.404742
292 2 0.235569 0.118774 0.404618
293 2 0.238673 0.137007 0.437575
294 2 0.202532 0.141158 0.415752
297 2 0.219118 0.0396619 0.418061
304 3 0.229383 0.138772 0.415783
289 1 0.310178 0.0859408 0.401752
290 1 0.253245 0.0355953 0.40883
295 2 0.255758 0.0141048 0.385671
296 2 0.276202 0.0222698 0.429606
298 2 0.252998 0.0861039 0.392341
299 2 0.320406 0.102522 0.376453
300 2 0.309105 0.104326 0.426672
301 2 0.327891 0.0575873 0.403829
302 2 0.274467 0.0628601 0.369319
303 3 0.271595 0.068198 0.392458
124 2 0.493746 0.29735 0.671434
275 2 0.380964 0.476813 0.707023
276 2 0.421207 0.489307 0.699803
277 2 0.411747 0.477649 0.734577
278 2 0.41502 0.451417 0.706
288 3 0.407082 0.47364 0.711975
13 2 0.352152 0.000296026 0.922073
161 1 0.0562624 0.635399 0.248168
162 1 0.135346 0.62216 0.246708
167 2 0.147963 0.626096 0.21776
170 2 0.0869253 0.59114 0.248773
171 2 0.0300877 0.625308 0.228968
173 2 0.0717627 0.662716 0.237571
174 2 0.0902212 0.609471 0.21634
175 3 0.0921926 0.61323 0.239816
50 1 0.418474 0.813435 0.22605
55 2 0.429742 0.791028 0.20582
57 2 0.383263 0.819475 0.222916
61 2 0.490841 0.831562 0.246504
9 2 0.382934 0.948909 -0.000715384
49 1 0.477543 0.860643 0.238312
51 2 0.417747 0.93535 0.216905
52 2 0.410109 0.897153 0.215352
53 2 0.399284 0.916377 0.246519
54 2 0.376318 0.921485 0.21415
58 2 0.429336 0.863241 0.210277
59 2 0.499583 0.875783 0.218351
62 2 0.457809 0.838186 0.196627
63 3 0.445071 0.844483 0.216872
64 3 0.400779 0.917807 0.223317
65 1 0.460408 0.922566 0.0840728
66 1 0.40832 0.91035 0.0327949
68 2 0.49909 0.890693 0.0281593
71 2 0.379422 0.894713 0.0424353
72 2 0.396224 0.943605 0.0416449
73 2 0.414893 0.90629 0.00226663
74 2 0.460242 0.890501 0.0442441
75 2 0.47364 0.901209 0.104376
76 2 0.485136 0.942383 0.0737396
77 2 0.428987 0.935081 0.0939466
78 2 0.430228 0.881248 0.0684673
79 3 0.440174 0.900369 0.0566089
163 2 0.0332079 0.552035 0.28633
164 2 0.0705653 0.567116 0.273976
165 2 0.0597896 0.572359 0.309895
166 2 0.072115 0.536619 0.297115
168 2 0.138566 0.652652 0.257498
169 2 0.153371 0.599213 0.262025
172 2 0.0459825 0.634662 0.27744
176 3 0.0587881 0.556931 0.29201
82 1 0.28811 0.603579 0.494366
87 2 0.310541 0.628511 0.49013
88 2 0.305469 0.580669 0.477721
89 2 0.254469 0.610759 0.485635
56 2 0.429192 0.799756 0.253057
182 2 0.412451 0.815405 0.385889
241 1 0.451551 0.72734 0.489054
251 2 0.440876 0.730507 0.459399
252 2 0.46237 0.697816 0.495201
254 2 0.473237 0.774735 0.481454
255 3 0.48206 0.755936 0.494913
60 2 0.466589 0.879924 0.260691
177 1 0.390638 0.925559 0.389782
178 1 0.319235 0.894394 0.378747
179 2 0.441371 0.84301 0.397409
180 2 0.399318 0.851619 0.393229
181 2 0.423206 0.845346 0.362556
183 2 0.295008 0.905665 0.399133
184 2 0.3157 0.916525 0.355844
185 2 0.312676 0.86366 0.371212
186 2 0.369846 0.878323 0.401024
187 2 0.408514 0.930516 0.416478
188 2 0.412329 0.916423 0.367247
189 2 0.367468 0.949883 0.38383
190 2 0.350412 0.906062 0.420421
191 3 0.357676 0.899991 0.398198
192 3 0.419299 0.838722 0.384686
83 2 0.216765 0.57051 0.589766
84 2 0.232347 0.586472 0.558373
85 2 0.212251 0.552147 0.556052
86 2 0.189342 0.585287 0.56328
96 3 0.21248 0.57347 0.566965
81 1 0.311384 0.565135 0.54953
90 2 0.268383 0.599527 0.542726
91 2 0.321268 0.574991 0.57799
92 2 0.291053 0.539178 0.550686
93 2 0.339692 0.564968 0.529808
94 2 0.307115 0.616032 0.540985
95 3 0.292767 0.596883 0.532441
273 1 0.424304 0.562995 0.709598
274 1 0.498167 0.538547 0.695337
282 2 0.443287 0.519528 0.687273
283 2 0.396416 0.568613 0.690492
284 2 0.413894 0.549494 0.735786
285 2 0.446244 0.588893 0.711409
286 2 0.451248 0.550875 0.666933
287 3 0.453929 0.541958 0.689036
259 2 0.154973 0.72476 0.737227
260 2 0.190036 0.702086 0.740389
262 2 0.150837 0.686001 0.744608
266 2 0.23229 0.701088 0.734002
272 3 0.165538 0.705851 0.748454
242 1 0.4946 0.772085 0.528793
247 2 0.48197 0.802208 0.525958
248 2 0.473408 0.761237 0.552151
253 2 0.427748 0.741057 0.508769
263 2 0.304937 0.669326 0.735291
267 2 0.250488 0.763046 0.725673
270 2 0.269276 0.708738 0.716674
271 3 0.258264 0.707035 0.738454
193 1 0.229338 0.906814 0.710491
194 1 0.173518 0.941893 0.67365
195 2 0.159 0.848243 0.748461
196 2 0.154295 0.878767 0.725651
197 2 0.158081 0.843437 0.710468
198 2 0.121203 0.853908 0.729188
199 2 0.17569 0.973602 0.679322
200 2 0.197354 0.939334 0.649984
201 2 0.139628 0.932718 0.66786
202 2 0.171881 0.912458 0.716507
203 2 0.238462 0.909814 0.740554
204 2 0.228732 0.876455 0.701634
205 2 0.247608 0.927971 0.692594
206 2 0.193026 0.945518 0.72153
207 3 0.190781 0.926595 0.706333
208 3 0.148086 0.85585 0.72848
216 2 -0.000316406 0.6173 0.950517
265 2 0.256878 0.650097 0.759571
307 2 0.462741 0.62161 0.831395
309 2 0.492506 0.632921 0.805198
310 2 0.471198 0.660165 0.826081
320 3 0.481619 0.6379 0.825952
261 2 0.167308 0.710347 0.771279
268 2 0.233787 0.750692 0.773308
257 1 0.257011 0.744881 0.750873
258 1 0.278355 0.675635 0.755481
264 2 0.297909 0.685373 0.78031
269 2 0.292395 0.74494 0.758194
97 1 0.119148 0.931715 0.885944
98 1 0.187577 0.950859 0.854402
99 2 0.135828 0.83934 0.873024
100 2 0.157778 0.870743 0.861738
101 2 0.168916 0.854103 0.894179
102 2 0.177737 0.836273 0.860841
103 2 0.180562 0.97216 0.831772
104 2 0.191612 0.971138 0.878787
105 2 0.215683 0.932077 0.847309
106 2 0.152858 0.907582 0.852242
107 2 0.087286 0.923137 0.873708
108 2 0.127779 0.913639 0.909957
109 2 0.121542 0.964008 0.88928
110 2 0.133504 0.938528 0.837987
111 3 0.148387 0.931215 0.856768
112 3 0.160082 0.8499 0.872553
1 1 0.330322 0.974355 0.924616
2 1 0.386752 0.968794 0.972356
3 2 0.276763 0.897823 0.951751
4 2 0.314292 0.913161 0.963366
5 2 0.27766 0.924105 0.980422
6 2 0.294129 0.887653 0.985572
7 2 0.419545 0.966493 0.96139
8 2 0.381951 0.99939 0.978222
10 2 0.348321 0.933288 0.951832
11 2 0.3271 0.958832 0.897554
12 2 0.299264 0.978163 0.938669
14 2 0.378561 0.945516 0.928332
15 3 0.360872 0.95359 0.944747
16 3 0.290462 0.905606 0.970338
19 2 0.550419 0.0773146 0.0908595
20 2 0.524848 0.0544904 0.0700762
21 2 0.541893 0.0862294 0.0542885
22 2 0.567426 0.0550091 0.0628198
32 3 0.546361 0.0684072 0.0695104
38 2 0.641218 0.207888 0.240436
34 1 0.714619 0.161222 0.31975
40 2 0.708773 0.13246 0.333675
41 2 0.725205 0.160568 0.290034
44 2 0.617855 0.163352 0.327535
45 2 0.658402 0.161565 0.367403
33 1 0.64197 0.178435 0.344605
35 2 0.610468 0.217817 0.266297
36 2 0.648562 0.202875 0.277025
37 2 0.619964 0.179594 0.260026
39 2 0.740316 0.173141 0.338379
42 2 0.673615 0.197443 0.306639
43 2 0.629528 0.206754 0.355194
46 2 0.691284 0.20509 0.339573
47 3 0.680605 0.186553 0.326832
48 3 0.629855 0.202041 0.260785
226 1 0.794975 0.320216 0.395389
231 2 0.801034 0.28997 0.404996
233 2 0.763269 0.322888 0.380828
234 2 0.821777 0.331543 0.350776
238 2 0.842911 0.304638 0.369862
239 3 0.830654 0.326575 0.372514
225 1 0.864643 0.351791 0.378601
227 2 0.831542 0.37574 0.295136
228 2 0.812952 0.354964 0.322417
229 2 0.805365 0.393164 0.321078
230 2 0.787878 0.368793 0.294914
232 2 0.798635 0.336198 0.42262
235 2 0.892194 0.340639 0.361497
236 2 0.857755 0.382274 0.372602
237 2 0.867941 0.342983 0.40869
240 3 0.809409 0.373352 0.308241
113 1 0.513621 0.287752 0.64785
114 1 0.582697 0.324631 0.650148
115 2 0.528824 0.248184 0.729609
116 2 0.553848 0.271326 0.708665
117 2 0.527252 0.28762 0.733732
118 2 0.563171 0.267516 0.74505
119 2 0.602346 0.318342 0.624719
121 2 0.603533 0.330262 0.674933
122 2 0.562958 0.28059 0.673598
123 2 0.507639 0.256698 0.640808
125 2 0.513924 0.306281 0.622041
126 2 0.568442 0.275227 0.637232
127 3 0.557783 0.291213 0.652873
128 3 0.543156 0.268626 0.729473
120 2 0.56262 0.349546 0.639586
67 2 0.54146 0.887982 0.0358055
69 2 0.525141 0.91976 0.0176889
70 2 0.526675 0.88467 -0.00012848
80 3 0.523333 0.895827 0.0203174
243 2 0.536717 0.69354 0.446028
244 2 0.531968 0.721762 0.471437
245 2 0.540389 0.685763 0.483433
246 2 0.571608 0.707119 0.46569
250 2 0.504433 0.748386 0.483527
256 3 0.545301 0.701839 0.46659
129 1 0.911414 0.82676 0.439349
131 2 0.969715 0.763319 0.48453
132 2 0.967175 0.80201 0.48699
139 2 0.927309 0.811654 0.415413
140 2 0.895216 0.80634 0.458128
144 3 0.965911 0.781853 0.49907
130 1 0.937453 0.881956 0.47785
135 2 0.95073 0.905128 0.459412
136 2 0.902351 0.890724 0.47858
138 2 0.959316 0.833622 0.467135
141 2 0.892546 0.852704 0.429632
142 2 0.958809 0.856463 0.437309
143 3 0.943126 0.849306 0.455669
279 2 0.511624 0.554204 0.670674
280 2 0.508771 0.558595 0.718404
281 2 0.509993 0.508116 0.696693
249 2 0.53018 0.771751 0.533735
133 2 0.941557 0.780539 0.509012
134 2 0.985261 0.782389 0.51529
137 2 0.954765 0.880738 0.505099
305 1 0.55592 0.58197 0.851134
306 1 0.59296 0.645365 0.859024
308 2 0.500807 0.636887 0.841755
311 2 0.609102 0.646557 0.886867
312 2 0.619538 0.631782 0.841929
314 2 0.536076 0.629713 0.86168
315 2 0.534502 0.565782 0.870846
316 2 0.543908 0.580589 0.822381
317 2 0.590972 0.574948 0.856094
318 2 0.559658 0.615221 0.889316
319 3 0.560045 0.618804 0.865751
209 1 0.969519 0.561617 0.90758
210 1 0.963547 0.620249 0.947539
211 2 0.905629 0.596478 0.843193
212 2 0.917547 0.610146 0.876717
213 2 0.940897 0.620283 0.846705
214 2 0.900062 0.634767 0.852
215 2 0.953128 0.611861 0.97625
217 2 0.95095 0.649297 0.939564
218 2 0.929311 0.599139 0.910697
219 2 0.946691 0.536785 0.904169
220 2 0.983464 0.570634 0.880835
221 2 0.99228 0.556717 0.931611
222 2 0.93029 0.577214 0.941126
223 3 0.946781 0.589933 0.926479
224 3 0.916017 0.615462 0.854424
313 2 0.581334 0.674416 0.85001